;;
;; Generated by CHARMM-GUI (http://www.charmm-gui.org) v1.7
;;
;; psf2itp_mol.py
;;
;; Correspondance:
;; jul316@lehigh.edu or wonpil@lehigh.edu
;;
;; CHARMM36 FF in GROMACS format
;;


[ defaults ]
; nbfunc	comb-rule	gen-pairs	fudgeLJ	fudgeQQ
1	2	yes	1.0	1.0

[ atomtypes ]
; name	at.num	mass	charge	ptype	sigma	epsilon	;	sigma_14	epsilon_14
   CG311     6    12.0110      0.146     A    3.56359487256e-01    1.338880e-01 ;   3.38541512893e-01    4.184000e-02 
   CG321     6    12.0110     -0.038     A    3.58141284692e-01    2.343040e-01 ;   3.38541512893e-01    4.184000e-02 
    HGA1     1     1.0080      0.090     A    2.38760856462e-01    1.882800e-01 
    HGA2     1     1.0080      0.090     A    2.38760856462e-01    1.464400e-01 
    HGP1     1     1.0080      0.421     A    4.00013524445e-02    1.924640e-01 
  HGPAM1     1     1.0080      0.342     A    1.55907275675e-01    3.765600e-02 
   NG311     7    14.0070     -0.609     A    3.56359487256e-01    1.882800e-01 
   OG311     8    15.9994     -0.655     A    3.14487247504e-01    8.037464e-01 

[ bondtypes ]
; i	j	func	b0	Kb
  CG311   CG311     1  1.500000e-01  1.861880e+05
  CG311   CG321     1  1.538000e-01  1.861880e+05
  CG311    HGA1     1  1.111000e-01  2.585712e+05
  CG311   NG311     1  1.474000e-01  2.200784e+05
  CG311   OG311     1  1.420000e-01  3.581504e+05
  CG321   CG321     1  1.530000e-01  1.861880e+05
  CG321    HGA2     1  1.111000e-01  2.585712e+05
  CG321   NG311     1  1.474000e-01  2.200784e+05
  CG321   OG311     1  1.420000e-01  3.581504e+05
  NG311    HGP1     1  1.021000e-01  3.698656e+05
  NG311  HGPAM1     1  1.019000e-01  3.747190e+05
  NG311   OG311     1  1.400700e-01  2.378437e+05
  OG311    HGP1     1  9.600000e-02  4.560560e+05

[ pairtypes ]
; i	j	func	sigma1-4	epsilon1-4
  CG311   CG311     1  3.38541512893e-01  4.18400000000e-02 
  CG311   CG321     1  3.38541512893e-01  4.18400000000e-02 
  CG311    HGA1     1  2.88651184677e-01  8.87560431745e-02 
  CG311    HGA2     1  2.88651184677e-01  7.82754725313e-02 
  CG311    HGP1     1  1.89271432669e-01  8.97368027066e-02 
  CG311  HGPAM1     1  2.47224394284e-01  3.96929091904e-02 
  CG311   NG311     1  3.47450500075e-01  8.87560431745e-02 
  CG311   OG311     1  3.26514380198e-01  1.83381431383e-01 
  CG321   CG321     1  3.38541512893e-01  4.18400000000e-02 
  CG321    HGA1     1  2.88651184677e-01  8.87560431745e-02 
  CG321    HGA2     1  2.88651184677e-01  7.82754725313e-02 
  CG321    HGP1     1  1.89271432669e-01  8.97368027066e-02 
  CG321  HGPAM1     1  2.47224394284e-01  3.96929091904e-02 
  CG321   NG311     1  3.47450500075e-01  8.87560431745e-02 
  CG321   OG311     1  3.26514380198e-01  1.83381431383e-01 

[ angletypes ]
; i	j	k	func	th0	cth	S0	Kub
  CG311   CG311   CG311     5  1.1100000e+02  4.4643280e+02  2.5610000e-01  6.6944000e+03
  CG311   CG311   CG321     5  1.1100000e+02  4.4643280e+02  2.5610000e-01  6.6944000e+03
  CG311   CG311    HGA1     5  1.1010000e+02  2.8869600e+02  2.1790000e-01  1.8853104e+04
  CG311   CG311   NG311     5  1.1120000e+02  6.1086400e+02  0.0000000e+00  0.0000000e+00
  CG311   CG311   OG311     5  1.1010000e+02  6.3345760e+02  0.0000000e+00  0.0000000e+00
  CG311   CG321   CG311     5  1.1350000e+02  4.8827280e+02  2.5610000e-01  9.3386880e+03
  CG311   CG321   CG321     5  1.1350000e+02  4.8827280e+02  2.5610000e-01  9.3386880e+03
  CG311   CG321    HGA2     5  1.1010000e+02  2.7974224e+02  2.1790000e-01  1.8853104e+04
  CG311   CG321   NG311     5  1.1000000e+02  3.6568160e+02  0.0000000e+00  0.0000000e+00
  CG311   CG321   OG311     5  1.1010000e+02  6.3345760e+02  0.0000000e+00  0.0000000e+00
  CG311   NG311   CG311     5  1.0960000e+02  3.3890400e+02  0.0000000e+00  0.0000000e+00
  CG311   NG311   CG321     5  1.0960000e+02  3.3890400e+02  0.0000000e+00  0.0000000e+00
  CG311   NG311    HGP1     5  1.1100000e+02  3.8492800e+02  0.0000000e+00  0.0000000e+00
  CG311   NG311  HGPAM1     5  1.1100000e+02  2.9288000e+02  0.0000000e+00  0.0000000e+00
  CG311   OG311    HGP1     5  1.0600000e+02  4.1840000e+02  0.0000000e+00  0.0000000e+00
  CG321   CG311   CG321     5  1.1350000e+02  4.8827280e+02  2.5610000e-01  9.3386880e+03
  CG321   CG311    HGA1     5  1.1010000e+02  2.8869600e+02  2.1790000e-01  1.8853104e+04
  CG321   CG311   NG311     5  1.1000000e+02  3.6568160e+02  0.0000000e+00  0.0000000e+00
  CG321   CG311   OG311     5  1.1000000e+02  6.3345760e+02  0.0000000e+00  0.0000000e+00
  CG321   CG321   CG321     5  1.1360000e+02  4.8827280e+02  2.5610000e-01  9.3386880e+03
  CG321   CG321    HGA2     5  1.1010000e+02  2.2175200e+02  2.1790000e-01  1.8853104e+04
  CG321   CG321   NG311     5  1.1000000e+02  3.6568160e+02  0.0000000e+00  0.0000000e+00
  CG321   CG321   OG311     5  1.1010000e+02  6.3345760e+02  0.0000000e+00  0.0000000e+00
  CG321   NG311   CG321     5  1.0960000e+02  3.3890400e+02  0.0000000e+00  0.0000000e+00
  CG321   NG311    HGP1     5  1.1100000e+02  3.8492800e+02  0.0000000e+00  0.0000000e+00
  CG321   NG311  HGPAM1     5  1.1100000e+02  2.9288000e+02  0.0000000e+00  0.0000000e+00
  CG321   OG311    HGP1     5  1.0600000e+02  4.1840000e+02  0.0000000e+00  0.0000000e+00
   HGA2   CG321    HGA2     5  1.0900000e+02  2.9706400e+02  1.8020000e-01  4.5187200e+03
  NG311   CG311    HGA1     5  1.0950000e+02  2.7112320e+02  2.1300000e-01  4.1840000e+04
  NG311   CG311   NG311     5  1.1300000e+02  7.5312000e+02  0.0000000e+00  0.0000000e+00
  NG311   CG311   OG311     5  1.1300000e+02  7.5312000e+02  0.0000000e+00  0.0000000e+00
  NG311   CG321    HGA2     5  1.0950000e+02  2.7112320e+02  2.1300000e-01  4.1840000e+04
  NG311   CG321   NG311     5  1.1300000e+02  7.5312000e+02  0.0000000e+00  0.0000000e+00
  NG311   OG311    HGP1     5  9.8869100e+01  4.6777120e+02  0.0000000e+00  0.0000000e+00
  OG311   CG311    HGA1     5  1.0889000e+02  3.8409120e+02  0.0000000e+00  0.0000000e+00
  OG311   CG311   OG311     5  1.1715000e+02  8.4098400e+02  0.0000000e+00  0.0000000e+00
  OG311   CG321    HGA2     5  1.0889000e+02  3.8409120e+02  0.0000000e+00  0.0000000e+00
  OG311   NG311    HGP1     5  9.7553300e+01  5.3898288e+02  0.0000000e+00  0.0000000e+00

[ dihedraltypes ]
; i	j	k	l	func	phi0	cp	mult
  CG311   CG311   CG311   CG311     9  1.800000e+02  2.092000e+00      4
  CG311   CG311   CG311   CG321     9  1.800000e+02  2.092000e+00      4
  CG311   CG311   CG311    HGA1     9  0.000000e+00  8.158800e-01      3
  CG311   CG311   CG311   NG311     9  0.000000e+00  1.673600e+00      1
  CG311   CG311   CG311   NG311     9  0.000000e+00  3.347200e+00      3
  CG311   CG311   CG311   OG311     9  0.000000e+00  5.857600e-01      3
  CG311   CG311   CG321   CG311     9  0.000000e+00  8.368000e-01      3
  CG311   CG311   CG321   CG321     9  0.000000e+00  8.368000e-01      3
  CG311   CG311   CG321    HGA2     9  0.000000e+00  8.158800e-01      3
  CG311   CG311   CG321   NG311     9  0.000000e+00  8.368000e-01      3
  CG311   CG311   CG321   NG311     9  1.800000e+02  8.368000e-01      3
  CG311   CG311   CG321   OG311     9  1.800000e+02  8.368000e-01      3
  CG311   CG311   NG311   CG311     9  0.000000e+00  3.681920e+00      1
  CG311   CG311   NG311   CG311     9  0.000000e+00  6.568880e+00      2
  CG311   CG311   NG311   CG311     9  1.800000e+02  3.681920e+00      3
  CG311   CG311   NG311   CG321     9  0.000000e+00  3.430880e+00      2
  CG311   CG311   NG311   CG321     9  0.000000e+00  4.267680e+00      3
  CG311   CG311   NG311   CG321     9  1.800000e+02  5.941280e+00      1
  CG311   CG311   NG311  HGPAM1     9  0.000000e+00  1.255200e+00      3
  CG311   CG311   OG311    HGP1     9  0.000000e+00  7.531200e-01      2
  CG311   CG311   OG311    HGP1     9  0.000000e+00  1.924640e+00      3
  CG311   CG311   OG311    HGP1     9  0.000000e+00  5.564720e+00      1
  CG311   CG321   CG321   CG311     9  0.000000e+00  8.158800e-01      3
  CG311   CG321   CG321   CG321     9  0.000000e+00  2.092000e+00      3
  CG311   CG321   CG321   CG321     9  1.800000e+02  2.092000e+00      6
  CG311   CG321   CG321    HGA2     9  0.000000e+00  8.158800e-01      3
  CG311   CG321   CG321   NG311     9  0.000000e+00  1.255200e+00      3
  CG311   CG321   CG321   NG311     9  0.000000e+00  1.631760e+00      2
  CG311   CG321   CG321   NG311     9  1.800000e+02  6.694400e-01      1
  CG311   CG321   CG321   OG311     9  0.000000e+00  8.158800e-01      3
  CG311   CG321   NG311   CG311     9  0.000000e+00  3.430880e+00      2
  CG311   CG321   NG311   CG311     9  0.000000e+00  4.267680e+00      3
  CG311   CG321   NG311   CG311     9  1.800000e+02  5.941280e+00      1
  CG311   CG321   NG311   CG321     9  0.000000e+00  2.092000e+00      3
  CG311   CG321   NG311   CG321     9  0.000000e+00  3.430880e+00      2
  CG311   CG321   NG311   CG321     9  0.000000e+00  4.267680e+00      3
  CG311   CG321   NG311   CG321     9  0.000000e+00  6.276000e+00      2
  CG311   CG321   NG311   CG321     9  1.800000e+02  5.941280e+00      1
  CG311   CG321   NG311   CG321     9  1.800000e+02  1.046000e+01      1
  CG311   CG321   NG311    HGP1     9  0.000000e+00  4.184000e-01      3
  CG311   CG321   NG311  HGPAM1     9  0.000000e+00  4.184000e-01      3
  CG311   CG321   NG311  HGPAM1     9  0.000000e+00  1.255200e+00      3
  CG311   CG321   OG311    HGP1     9  0.000000e+00  5.857600e-01      2
  CG311   CG321   OG311    HGP1     9  0.000000e+00  1.004160e+00      3
  CG311   CG321   OG311    HGP1     9  0.000000e+00  4.727920e+00      1
  CG321   CG311   CG311   CG321     9  1.800000e+02  2.092000e+00      4
  CG321   CG311   CG311    HGA1     9  0.000000e+00  8.158800e-01      3
  CG321   CG311   CG311   NG311     9  0.000000e+00  1.673600e+00      1
  CG321   CG311   CG311   NG311     9  0.000000e+00  3.347200e+00      3
  CG321   CG311   CG311   OG311     9  0.000000e+00  5.857600e-01      3
  CG321   CG311   CG321   CG311     9  0.000000e+00  8.368000e-01      3
  CG321   CG311   CG321   CG321     9  0.000000e+00  8.368000e-01      3
  CG321   CG311   CG321    HGA2     9  0.000000e+00  8.158800e-01      1
  CG321   CG311   CG321   NG311     9  0.000000e+00  8.368000e-01      3
  CG321   CG311   CG321   NG311     9  1.800000e+02  8.368000e-01      3
  CG321   CG311   CG321   OG311     9  1.800000e+02  8.368000e-01      3
  CG321   CG311   NG311   CG311     9  0.000000e+00  3.430880e+00      2
  CG321   CG311   NG311   CG311     9  0.000000e+00  4.267680e+00      3
  CG321   CG311   NG311   CG311     9  1.800000e+02  5.941280e+00      1
  CG321   CG311   NG311   CG321     9  0.000000e+00  2.092000e+00      3
  CG321   CG311   NG311   CG321     9  0.000000e+00  3.430880e+00      2
  CG321   CG311   NG311   CG321     9  0.000000e+00  4.267680e+00      3
  CG321   CG311   NG311   CG321     9  0.000000e+00  6.276000e+00      2
  CG321   CG311   NG311   CG321     9  1.800000e+02  5.941280e+00      1
  CG321   CG311   NG311   CG321     9  1.800000e+02  1.046000e+01      1
  CG321   CG311   NG311    HGP1     9  0.000000e+00  4.184000e-01      3
  CG321   CG311   NG311  HGPAM1     9  0.000000e+00  4.184000e-01      3
  CG321   CG311   NG311  HGPAM1     9  0.000000e+00  1.255200e+00      3
  CG321   CG311   OG311    HGP1     9  0.000000e+00  1.255200e+00      1
  CG321   CG311   OG311    HGP1     9  0.000000e+00  1.255200e+00      3
  CG321   CG321   CG321   CG321     9  0.000000e+00  2.698680e-01      2
  CG321   CG321   CG321   CG321     9  0.000000e+00  3.957227e-01      4
  CG321   CG321   CG321   CG321     9  0.000000e+00  4.707418e-01      5
  CG321   CG321   CG321   CG321     9  1.800000e+02  6.265540e-01      3
  CG321   CG321   CG321    HGA2     9  0.000000e+00  8.158800e-01      3
  CG321   CG321   CG321   NG311     9  0.000000e+00  1.255200e+00      3
  CG321   CG321   CG321   OG311     9  0.000000e+00  8.158800e-01      3
  CG321   CG321   NG311   CG311     9  0.000000e+00  2.092000e+00      3
  CG321   CG321   NG311   CG311     9  0.000000e+00  3.430880e+00      2
  CG321   CG321   NG311   CG311     9  0.000000e+00  4.267680e+00      3
  CG321   CG321   NG311   CG311     9  0.000000e+00  6.276000e+00      2
  CG321   CG321   NG311   CG311     9  1.800000e+02  5.941280e+00      1
  CG321   CG321   NG311   CG311     9  1.800000e+02  1.046000e+01      1
  CG321   CG321   NG311   CG321     9  0.000000e+00  2.092000e+00      3
  CG321   CG321   NG311   CG321     9  0.000000e+00  3.430880e+00      2
  CG321   CG321   NG311   CG321     9  0.000000e+00  4.267680e+00      3
  CG321   CG321   NG311   CG321     9  0.000000e+00  6.276000e+00      2
  CG321   CG321   NG311   CG321     9  1.800000e+02  5.941280e+00      1
  CG321   CG321   NG311   CG321     9  1.800000e+02  1.046000e+01      1
  CG321   CG321   NG311    HGP1     9  0.000000e+00  4.184000e-01      3
  CG321   CG321   NG311  HGPAM1     9  0.000000e+00  1.255200e+00      3
  CG321   CG321   OG311    HGP1     9  0.000000e+00  5.857600e-01      2
  CG321   CG321   OG311    HGP1     9  0.000000e+00  1.004160e+00      3
  CG321   CG321   OG311    HGP1     9  0.000000e+00  4.727920e+00      1
   HGA1   CG311   CG311    HGA1     9  0.000000e+00  8.158800e-01      3
   HGA1   CG311   CG321   CG311     9  0.000000e+00  8.158800e-01      3
   HGA1   CG311   CG321   CG321     9  0.000000e+00  8.158800e-01      3
   HGA1   CG311   CG321    HGA2     9  0.000000e+00  8.158800e-01      3
   HGA1   CG311   CG321   NG311     9  0.000000e+00  6.694400e-01      3
   HGA1   CG311   CG321   NG311     9  0.000000e+00  7.531200e-01      3
   HGA1   CG311   CG321   OG311     9  0.000000e+00  8.158800e-01      3
   HGA1   CG311   NG311   CG311     9  0.000000e+00  0.000000e+00      3
   HGA1   CG311   NG311   CG321     9  0.000000e+00  0.000000e+00      3
   HGA1   CG311   NG311   CG321     9  1.800000e+02  0.000000e+00      3
   HGA1   CG311   NG311    HGP1     9  0.000000e+00  2.092000e-01      3
   HGA1   CG311   NG311  HGPAM1     9  0.000000e+00  2.092000e-01      3
   HGA1   CG311   NG311  HGPAM1     9  0.000000e+00  2.092000e-01      3
   HGA1   CG311   OG311    HGP1     9  0.000000e+00  0.000000e+00      3
   HGA2   CG321   CG321    HGA2     9  0.000000e+00  9.204800e-01      3
   HGA2   CG321   NG311   CG311     9  0.000000e+00  0.000000e+00      3
   HGA2   CG321   NG311   CG311     9  1.800000e+02  0.000000e+00      3
   HGA2   CG321   NG311   CG321     9  0.000000e+00  0.000000e+00      3
   HGA2   CG321   NG311    HGP1     9  0.000000e+00  2.092000e-01      3
   HGA2   CG321   NG311  HGPAM1     9  0.000000e+00  2.092000e-01      3
   HGA2   CG321   OG311    HGP1     9  0.000000e+00  7.531200e-01      3
   HGP1   NG311   OG311    HGP1     9  0.000000e+00  4.560560e+00      4
   HGP1   NG311   OG311    HGP1     9  1.800000e+02  5.020800e-01      1
   HGP1   NG311   OG311    HGP1     9  1.800000e+02  2.928800e+00      3
   HGP1   NG311   OG311    HGP1     9  1.800000e+02  6.610720e+00      6
  NG311   CG311   CG311    HGA1     9  0.000000e+00  2.092000e+00      3
  NG311   CG311   CG311   NG311     9  1.800000e+02  2.510400e-01      1
  NG311   CG311   CG311   NG311     9  1.800000e+02  1.506240e+00      3
  NG311   CG311   CG311   OG311     9  0.000000e+00  3.347200e+00      3
  NG311   CG311   CG311   OG311     9  1.800000e+02  1.673600e+00      1
  NG311   CG311   CG321   CG311     9  0.000000e+00  8.158800e-01      3
  NG311   CG311   CG321   CG321     9  0.000000e+00  8.158800e-01      3
  NG311   CG311   CG321   CG321     9  0.000000e+00  8.368000e-01      3
  NG311   CG311   CG321    HGA2     9  0.000000e+00  6.694400e-01      3
  NG311   CG311   CG321    HGA2     9  0.000000e+00  6.694400e-01      3
  NG311   CG311   CG321   NG311     9  0.000000e+00  8.368000e-01      3
  NG311   CG311   CG321   NG311     9  1.800000e+02  1.548080e+00      3
  NG311   CG311   CG321   NG311     9  1.800000e+02  2.213336e+01      4
  NG311   CG311   CG321   OG311     9  0.000000e+00  8.368000e-01      3
  NG311   CG311   CG321   OG311     9  0.000000e+00  3.347200e+00      3
  NG311   CG311   CG321   OG311     9  1.800000e+02  1.673600e+00      1
  NG311   CG311   NG311   CG321     9  0.000000e+00  7.112800e+00      2
  NG311   CG311   NG311   CG321     9  1.800000e+02  3.179840e+00      3
  NG311   CG311   NG311   CG321     9  1.800000e+02  3.221680e+00      1
  NG311   CG311   NG311   CG321     9  1.800000e+02  3.263520e+00      4
  NG311   CG311   NG311  HGPAM1     9  0.000000e+00  1.255200e+00      3
  NG311   CG311   NG311  HGPAM1     9  0.000000e+00  7.112800e+00      2
  NG311   CG311   OG311    HGP1     9  0.000000e+00  2.092000e-01      2
  NG311   CG311   OG311    HGP1     9  0.000000e+00  1.255200e+00      1
  NG311   CG311   OG311    HGP1     9  0.000000e+00  1.255200e+00      3
  NG311   CG311   OG311    HGP1     9  0.000000e+00  2.594080e+00      3
  NG311   CG311   OG311    HGP1     9  0.000000e+00  2.719600e+00      6
  NG311   CG311   OG311    HGP1     9  0.000000e+00  9.330320e+00      1
  NG311   CG321   CG321    HGA2     9  0.000000e+00  8.158800e-01      3
  NG311   CG321   CG321   NG311     9  0.000000e+00  1.255200e+00      3
  NG311   CG321   CG321   NG311     9  0.000000e+00  4.393200e+00      3
  NG311   CG321   CG321   NG311     9  0.000000e+00  6.694400e+00      4
  NG311   CG321   CG321   OG311     9  1.800000e+02  2.928800e+00      1
  NG311   CG321   NG311    HGP1     9  0.000000e+00  4.184000e-01      3
  NG311   CG321   NG311  HGPAM1     9  0.000000e+00  1.255200e+00      3
  NG311   CG321   NG311  HGPAM1     9  0.000000e+00  7.112800e+00      2
  OG311   CG311   CG311    HGA1     9  0.000000e+00  8.158800e-01      3
  OG311   CG311   CG311   OG311     9  0.000000e+00  8.368000e-01      3
  OG311   CG311   CG321   CG311     9  0.000000e+00  1.673600e+00      5
  OG311   CG311   CG321   CG311     9  0.000000e+00  3.347200e+00      6
  OG311   CG311   CG321   CG311     9  1.800000e+02  8.368000e+00      3
  OG311   CG311   CG321   CG321     9  0.000000e+00  1.673600e+00      3
  OG311   CG311   CG321   CG321     9  0.000000e+00  1.673600e+00      5
  OG311   CG311   CG321   CG321     9  0.000000e+00  2.928800e+00      2
  OG311   CG311   CG321   CG321     9  1.800000e+02  2.092000e+00      1
  OG311   CG311   CG321    HGA2     9  1.800000e+02  8.158800e-01      3
  OG311   CG311   CG321   NG311     9  0.000000e+00  8.368000e-01      3
  OG311   CG311   CG321   NG311     9  0.000000e+00  8.368000e-01      3
  OG311   CG311   CG321   OG311     9  0.000000e+00  8.368000e-01      3
  OG311   CG311   NG311   CG321     9  0.000000e+00  2.092000e+00      3
  OG311   CG311   NG311   CG321     9  0.000000e+00  6.276000e+00      2
  OG311   CG311   NG311   CG321     9  1.800000e+02  1.046000e+01      1
  OG311   CG311   NG311  HGPAM1     9  0.000000e+00  1.255200e+00      3
  OG311   CG311   NG311  HGPAM1     9  0.000000e+00  7.112800e+00      2
  OG311   CG311   NG311  HGPAM1     9  1.800000e+02  1.255200e-01      3
  OG311   CG311   NG311  HGPAM1     9  1.800000e+02  4.895280e+00      2
  OG311   CG311   OG311    HGP1     9  0.000000e+00  1.163570e+00      3
  OG311   CG311   OG311    HGP1     9  0.000000e+00  4.413702e+00      2
  OG311   CG311   OG311    HGP1     9  0.000000e+00  7.673038e+00      1
  OG311   CG321   CG321    HGA2     9  0.000000e+00  8.158800e-01      3
  OG311   CG321   CG321   OG311     9  0.000000e+00  8.368000e-01      3
