;
;; Generated by CHARMM-GUI (http://www.charmm-gui.org) v1.7
;;
;; psf2itp_mol.py
;;
;; Correspondance:
;; jul316@lehigh.edu or wonpil@lehigh.edu
;;
;; GROMACS topology file for DGJ
;;


[ moleculetype ]
; name	nrexcl
DGJ	     3

[ atoms ]
; nr	type	resnr	residu	atom	cgnr	charge	mass
     1      CG321      1      DGJ     C1      1     -0.038    12.0110   ; qtot -0.038
     2      CG311      1      DGJ     C2      2      0.146    12.0110   ; qtot  0.108
     3      OG311      1      DGJ     O1      3     -0.655    15.9994   ; qtot -0.547
     4      CG311      1      DGJ     C3      4      0.137    12.0110   ; qtot -0.410
     5      OG311      1      DGJ     O2      5     -0.645    15.9994   ; qtot -1.055
     6      CG311      1      DGJ     C4      6      0.122    12.0110   ; qtot -0.933
     7      OG311      1      DGJ     O3      7     -0.646    15.9994   ; qtot -1.579
     8      CG311      1      DGJ     C5      8      0.079    12.0110   ; qtot -1.500
     9      NG311      1      DGJ      N      9     -0.609    14.0070   ; qtot -2.109
    10      CG321      1      DGJ     C6     10     -0.025    12.0110   ; qtot -2.134
    11      OG311      1      DGJ     O4     11     -0.610    15.9994   ; qtot -2.744
    12       HGA2      1      DGJ     H1     12      0.090     1.0080   ; qtot -2.654
    13       HGA2      1      DGJ     H2     13      0.090     1.0080   ; qtot -2.564
    14       HGA1      1      DGJ     H3     14      0.090     1.0080   ; qtot -2.474
    15       HGP1      1      DGJ     H4     15      0.421     1.0080   ; qtot -2.053
    16       HGA1      1      DGJ     H5     16      0.090     1.0080   ; qtot -1.963
    17       HGP1      1      DGJ     H6     17      0.422     1.0080   ; qtot -1.541
    18       HGA1      1      DGJ     H7     18      0.090     1.0080   ; qtot -1.451
    19       HGP1      1      DGJ     H8     19      0.422     1.0080   ; qtot -1.029
    20       HGA1      1      DGJ     H9     20      0.090     1.0080   ; qtot -0.939
    21     HGPAM1      1      DGJ    H10     21      0.342     1.0080   ; qtot -0.597
    22       HGA2      1      DGJ    H11     22      0.090     1.0080   ; qtot -0.507
    23       HGA2      1      DGJ    H12     23      0.090     1.0080   ; qtot -0.417
    24       HGP1      1      DGJ    H13     24      0.417     1.0080   ; qtot -0.000

[ bonds ]
; ai	aj	funct	b0	Kb
    1     2     1
    1     9     1
    1    12     1
    1    13     1
    2     3     1
    2     4     1
    2    14     1
    3    15     1
    4     5     1
    4     6     1
    4    16     1
    5    17     1
    6     7     1
    6     8     1
    6    18     1
    7    19     1
    8     9     1
    8    10     1
    8    20     1
    9    21     1
   10    11     1
   10    22     1
   10    23     1
   11    24     1

[ pairs ]
; ai	aj	funct	c6	c12
    1     5     1 
    1     6     1 
    1    10     1 
    1    15     1 
    1    16     1 
    1    20     1 
    2     7     1 
    2     8     1 
    2    17     1 
    2    18     1 
    2    21     1 
    3     5     1 
    3     6     1 
    3     9     1 
    3    12     1 
    3    13     1 
    3    16     1 
    4     9     1 
    4    10     1 
    4    12     1 
    4    13     1 
    4    15     1 
    4    19     1 
    4    20     1 
    5     7     1 
    5     8     1 
    5    14     1 
    5    18     1 
    6    11     1 
    6    14     1 
    6    17     1 
    6    21     1 
    6    22     1 
    6    23     1 
    7     9     1 
    7    10     1 
    7    16     1 
    7    20     1 
    8    12     1 
    8    13     1 
    8    16     1 
    8    19     1 
    8    24     1 
    9    11     1 
    9    14     1 
    9    18     1 
    9    22     1 
    9    23     1 
   10    18     1 
   10    21     1 
   11    20     1 
   12    14     1 
   12    21     1 
   13    14     1 
   13    21     1 
   14    15     1 
   14    16     1 
   16    17     1 
   16    18     1 
   18    19     1 
   18    20     1 
   20    21     1 
   20    22     1 
   20    23     1 
   22    24     1 
   23    24     1 

[ angles ] 
; ai	aj	ak	funct	th0	cth	S0	Kub
    2     1     9     5
    2     1    12     5
    2     1    13     5
    9     1    12     5
    9     1    13     5
   12     1    13     5
    1     2     3     5
    1     2     4     5
    1     2    14     5
    3     2     4     5
    3     2    14     5
    4     2    14     5
    2     3    15     5
    2     4     5     5
    2     4     6     5
    2     4    16     5
    5     4     6     5
    5     4    16     5
    6     4    16     5
    4     5    17     5
    4     6     7     5
    4     6     8     5
    4     6    18     5
    7     6     8     5
    7     6    18     5
    8     6    18     5
    6     7    19     5
    6     8     9     5
    6     8    10     5
    6     8    20     5
    9     8    10     5
    9     8    20     5
   10     8    20     5
    1     9     8     5
    1     9    21     5
    8     9    21     5
    8    10    11     5
    8    10    22     5
    8    10    23     5
   11    10    22     5
   11    10    23     5
   22    10    23     5
   10    11    24     5

[ dihedrals ]
; ai	aj	ak	al	funct	phi0	cp	mult
    9     1     2    14     9
   12     1     2    14     9
   13     1     2    14     9
    2     1     9     8     9
    2     1     9    21     9
   12     1     9    21     9
   13     1     9    21     9
    3     2     1     9     9
    3     2     1    12     9
    3     2     1    13     9
    4     2     1     9     9
    4     2     1    12     9
    4     2     1    13     9
    1     2     3    15     9
    4     2     3    15     9
   14     2     3    15     9
    1     2     4     5     9
    1     2     4     6     9
    1     2     4    16     9
    3     2     4     5     9
    3     2     4     6     9
    3     2     4    16     9
   14     2     4    16     9
    5     4     2    14     9
    6     4     2    14     9
    2     4     5    17     9
    6     4     5    17     9
   16     4     5    17     9
    2     4     6     7     9
    2     4     6     8     9
    2     4     6    18     9
    5     4     6     7     9
    5     4     6     8     9
    5     4     6    18     9
   16     4     6    18     9
    7     6     4    16     9
    8     6     4    16     9
    4     6     7    19     9
    8     6     7    19     9
   18     6     7    19     9
    4     6     8     9     9
    4     6     8    10     9
    4     6     8    20     9
    7     6     8     9     9
    7     6     8    10     9
    7     6     8    20     9
   18     6     8    20     9
    9     8     6    18     9
   10     8     6    18     9
    6     8     9    21     9
   10     8     9    21     9
   20     8     9    21     9
    6     8    10    11     9
    6     8    10    22     9
    6     8    10    23     9
    9     8    10    11     9
    9     8    10    22     9
    9     8    10    23     9
   20     8    10    22     9
   20     8    10    23     9
    8     9     1    12     9
    8     9     1    13     9
    1     9     8     6     9
    1     9     8    10     9
    1     9     8    20     9
   11    10     8    20     9
    8    10    11    24     9
   22    10    11    24     9
   23    10    11    24     9

